3
| terachem gradient in au, energy -75.5788691372 , grad_rms 0.065254 , grad_max 0.084946 on atom 1
 O      -0.0006380621       0.0701256950      0.0479355141
 H       0.0089523415      -0.0561717083     -0.0452998935
 H      -0.0083142794      -0.0139539867     -0.0026356206
