[Molden Format]
[Title]
Written by TeraChem
[Atoms] Angs
O   1   8      0.6840000000   -1.7170000000   -2.0850000000
H   2   1      0.3970000000   -1.1190000000   -1.4460000000
H   3   1      1.1780000000   -2.1830000000   -2.8040000000
[GTO]
    1 0
 s    6 1.00
         5484.671700             0.001831
          825.234950             0.013950
          188.046960             0.068445
           52.964500             0.232714
           16.897570             0.470193
            5.799635             0.358521
 s    3 1.00
           15.539616            -0.110778
            3.599934            -0.148026
            1.013762             1.130767
 s    1 1.00
            0.270006             1.000000
 p    3 1.00
           15.539616             0.070874
            3.599934             0.339753
            1.013762             0.727159
 p    1 1.00
            0.270006             1.000000
 d    1 1.00
            0.800000             1.000000

    2 0
 s    3 1.00
           18.731137             0.033495
            2.825394             0.234727
            0.640122             0.813757
 s    1 1.00
            0.161278             1.000000

    3 0
 s    3 1.00
           18.731137             0.033495
            2.825394             0.234727
            0.640122             0.813757
 s    1 1.00
            0.161278             1.000000

[MO]
 Ene=   -21.1017
 Spin= Alpha
 Occup= 1.0
    1    0.9940740501
    2    0.0225784893
    3    0.0061783463
    4    0.0002683668
    5    0.0003203057
    6   -0.0000028696
    7   -0.0000589728
    8   -0.0000929640
    9   -0.0000146335
   10   -0.0048577051
   11   -0.0049368968
   12   -0.0049229907
   13   -0.0000046212
   14    0.0002484847
   15   -0.0002661010
   16    0.0005009134
   17   -0.0007165532
   18    0.0004722833
   19   -0.0007127164
 Ene=    -1.8763
 Spin= Alpha
 Occup= 1.0
    1    0.2215540071
    2   -0.5433148296
    3   -0.4302378375
    4   -0.0106160910
    5   -0.0280093408
    6   -0.0102575519
    7   -0.0104335876
    8   -0.0097648582
    9    0.0019287005
   10   -0.0124315602
   11   -0.0183200374
   12   -0.0349727235
   13    0.0219964005
   14    0.0057602857
   15   -0.0150485740
   16   -0.1126066389
   17    0.0192968254
   18   -0.0900125374
   19    0.0173582622
 Ene=    -1.2778
 Spin= Alpha
 Occup= 1.0
    1    0.0067042072
    2   -0.0156052412
    3   -0.0279712516
    4   -0.2309170277
    5    0.3280052548
    6    0.4105862020
    7   -0.1264263685
    8    0.1763660648
    9    0.2226203103
   10   -0.0086288965
   11    0.0091660160
   12   -0.0039153421
   13    0.0026473084
   14    0.0084499421
   15    0.0062212173
   16    0.2260433730
   17   -0.0082625615
   18   -0.2143287424
   19    0.0020265877
 Ene=    -1.1068
 Spin= Alpha
 Occup= 1.0
    1   -0.0000003419
    2    0.0000011142
    3    0.0000010198
    4   -0.4054962029
    5    0.3352981960
    6   -0.4959136380
    7   -0.2341530053
    8    0.1936173074
    9   -0.2863641465
   10   -0.0058204883
   11    0.0064285042
   12   -0.0006080509
   13   -0.0017096972
   14   -0.0043968244
   15   -0.0052520734
   16   -0.0000014269
   17   -0.0000002453
   18   -0.0000007497
   19   -0.0000001347
 Ene=    -1.0129
 Spin= Alpha
 Occup= 1.0
    1   -0.0156142055
    2    0.0437365862
    3    0.0495710934
    4   -0.5040236910
    5   -0.4738444615
    6    0.0917513126
    7   -0.3171929859
    8   -0.2960889253
    9    0.0591687471
   10   -0.0016319924
   11   -0.0041761680
   12    0.0052411695
   13   -0.0097639823
   14    0.0032611795
   15   -0.0021581844
   16   -0.0342810530
   17   -0.0072010098
   18   -0.0371805198
   19   -0.0081056046
 Ene=    -0.1489
 Spin= Alpha
 Occup= 0.0
    1   -0.1081942747
    2    0.1779942610
    3    1.2214848694
    4    0.0655908709
    5    0.0139425174
    6   -0.0442026494
    7    0.1043306409
    8    0.0242254379
    9   -0.0689249156
   10   -0.0330945006
   11   -0.0387926675
   12   -0.0415628795
   13    0.0041672945
   14    0.0168825679
   15   -0.0194862525
   16   -0.1842741851
   17   -0.7908105172
   18   -0.2239808319
   19   -1.0171177765
 Ene=    -0.0160
 Spin= Alpha
 Occup= 0.0
    1   -0.0145646722
    2    0.0201698689
    3    0.2425296407
    4   -0.1323503025
    5    0.1911784437
    6    0.2374800314
    7   -0.3228919107
    8    0.4663535628
    9    0.5793343638
   10   -0.0091961954
   11   -0.0044130120
   12   -0.0063808640
   13   -0.0009066539
   14    0.0011850182
   15    0.0029889258
   16   -0.0719654507
   17   -1.4637092207
   18    0.0644818854
   19    1.1290989218
 Ene=     0.4646
 Spin= Alpha
 Occup= 0.0
    1    0.0441887861
    2    0.0955598977
    3   -0.3145226766
    4   -0.0198991262
    5   -0.0003674658
    6    0.0160215296
    7   -0.0171195006
    8   -0.1129943549
    9   -0.0624030676
   10    0.0247260431
   11    0.0668736021
   12    0.1203855092
   13   -0.0697989858
   14   -0.1189445977
   15    0.1493090236
   16    0.7108894586
   17   -0.4057389451
   18    0.8125332823
   19   -0.6720635031
 Ene=     0.6602
 Spin= Alpha
 Occup= 0.0
    1   -0.0000001405
    2   -0.0000047532
    3    0.0000090417
    4    0.5057520539
    5   -0.4181993694
    6    0.6185237995
    7   -0.6044499484
    8    0.4998114037
    9   -0.7392292112
   10   -0.0043893552
   11    0.0020874916
   12    0.0022971694
   13    0.0006362488
   14   -0.0020130697
   15   -0.0026810422
   16    0.0000006888
   17   -0.0000015742
   18   -0.0000000964
   19    0.0000000914
 Ene=     0.7200
 Spin= Alpha
 Occup= 0.0
    1    0.0041563023
    2    0.1327605758
    3   -0.2393331190
    4   -0.6584329703
    5   -0.6222224562
    6    0.1176851246
    7    0.7598586452
    8    0.7315773965
    9   -0.1266809876
   10    0.0515519879
   11    0.0484634292
   12    0.0480598004
   13    0.0029360059
   14   -0.0035057580
   15   -0.0002713831
   16   -0.0163297830
   17    0.0029558140
   18    0.0081025792
   19   -0.0053200314
 Ene=     0.8882
 Spin= Alpha
 Occup= 0.0
    1    0.0300981650
    2    0.6483465794
    3   -1.5361994454
    4    0.3656525772
    5   -0.4501783517
    6   -0.6033603716
    7   -0.3894980725
    8    0.4064615984
    9    0.5932983453
   10    0.1479486645
   11    0.2547706424
   12    0.1934012571
   13   -0.0005558515
   14    0.0290423317
   15    0.0595280528
   16    0.5463786170
   17   -0.4795180721
   18   -0.5457047732
   19    1.2270060234
 Ene=     0.9448
 Spin= Alpha
 Occup= 0.0
    1    0.0601308995
    2    1.5529947907
    3   -3.5636381286
    4   -0.0773888200
    5    0.2771848247
    6    0.2506954827
    7    0.0291150627
    8   -0.3468555522
    9   -0.2583327819
   10    0.4761429259
   11    0.4229738166
   12    0.4560316874
   13   -0.0024532498
   14   -0.0155361107
   15   -0.0280299065
   16   -0.3630629805
   17    1.3742076185
   18    0.1227502995
   19    0.5038260981
 Ene=     1.2209
 Spin= Alpha
 Occup= 0.0
    1   -0.0020553857
    2   -0.0063958167
    3    0.1307617102
    4    0.1968491441
    5   -0.2499575623
    6   -0.3299606635
    7   -0.8183664626
    8    1.1304680844
    9    1.4334949893
   10    0.2371632324
   11   -0.2972833944
   12    0.0794395785
   13   -0.0608041464
   14   -0.2543786686
   15   -0.1911929611
   16   -0.8189773632
   17   -0.6066332689
   18    0.7797369108
   19    0.5067215111
 Ene=     1.4586
 Spin= Alpha
 Occup= 0.0
    1    0.0000000668
    2   -0.0000002954
    3   -0.0000008133
    4    0.0018883185
    5   -0.0015611457
    6    0.0023122561
    7   -0.0004539341
    8    0.0003720689
    9   -0.0005731517
   10    0.3927507702
   11    0.4574436037
   12   -0.8501944155
   13   -0.5068896081
   14   -0.1240211231
   15   -0.0587099721
   16    0.0000073893
   17    0.0000038205
   18   -0.0000073910
   19   -0.0000030643
 Ene=     1.5860
 Spin= Alpha
 Occup= 0.0
    1    0.0000002560
    2    0.0000000266
    3   -0.0000023867
    4   -0.0012584233
    5    0.0010407718
    6   -0.0015389557
    7   -0.0054633933
    8    0.0045169428
    9   -0.0066834655
   10    0.7017646483
   11   -0.5451001049
   12   -0.1566632534
   13    0.0455564044
   14    0.4215577483
   15    0.5266159712
   16    0.0000019517
   17    0.0000004944
   18    0.0000001010
   19   -0.0000003000
 Ene=     1.5874
 Spin= Alpha
 Occup= 0.0
    1   -0.0106318610
    2    0.0074113581
    3    0.0769535674
    4   -0.0032546527
    5   -0.0003697983
    6    0.0024110681
    7   -0.0026915166
    8   -0.0023282929
    9    0.0006268548
   10    0.1607479888
   11    0.1935159848
   12   -0.4047887990
   13    0.7441410302
   14   -0.4884655853
   15    0.2370948293
   16   -0.0365390735
   17    0.0000945070
   18   -0.0344411658
   19    0.0008575411
 Ene=     1.7181
 Spin= Alpha
 Occup= 0.0
    1   -0.0002402829
    2   -0.0208560987
    3   -0.0427113217
    4   -0.0782091284
    5    0.0996989060
    6    0.1313583000
    7    0.5784602038
    8   -0.7972557914
    9   -1.0120364523
   10    0.4442853666
   11   -0.6258324308
   12    0.1477568646
   13   -0.1396640359
   14   -0.5372338323
   15   -0.3551239343
   16    0.7758157900
   17    0.3454359579
   18   -0.7854562447
   19   -0.2795989837
 Ene=     2.6082
 Spin= Alpha
 Occup= 0.0
    1    0.0939701933
    2    0.2462092439
    3   -1.4124854845
    4    0.0122483424
    5   -0.0215644002
    6   -0.0245953856
    7   -0.0179344763
    8   -0.2267466583
    9   -0.1386505194
   10    0.5712424641
   11    0.2034438175
   12   -0.1531276927
   13    0.5400831700
   14    0.6585194827
   15   -0.9713358540
   16    1.1269780728
   17    0.0127755293
   18    0.8527363612
   19   -0.1255145292
 Ene=     3.5544
 Spin= Alpha
 Occup= 0.0
    1    0.4617787141
    2   -0.3077160418
    3   -3.6085171398
    4    0.0099882554
    5    0.0330448392
    6    0.0141762814
    7   -0.0386240852
    8   -0.0201815788
    9    0.0179349994
   10    1.5101160585
   11    1.5704733516
   12    1.6175963925
   13   -0.0756987607
   14   -0.1067596747
   15    0.1549762621
   16   -0.4017936281
   17    0.6581599759
   18   -0.3243017420
   19    0.6089755404
 Ene=   -21.0574
 Spin= Beta
 Occup= 1.0
    1    0.9949662357
    2    0.0198211528
    3    0.0041730192
    4    0.0002510429
    5    0.0003153323
    6    0.0000079372
    7   -0.0000722678
    8   -0.0000746973
    9    0.0000085883
   10   -0.0038369154
   11   -0.0037119540
   12   -0.0040453823
   13    0.0003862121
   14   -0.0005214912
   15    0.0004289006
   16    0.0001433034
   17   -0.0003637541
   18    0.0001720226
   19   -0.0003631269
 Ene=    -1.7171
 Spin= Beta
 Occup= 1.0
    1    0.2122688220
    2   -0.5026442101
    3   -0.4252281276
    4   -0.0085070728
    5   -0.0316198733
    6   -0.0144240359
    7   -0.0101910385
    8   -0.0111088596
    9    0.0008214566
   10   -0.0136890705
   11   -0.0268876475
   12   -0.0286014618
   13    0.0048221952
   14    0.0352557439
   15   -0.0407040540
   16   -0.1381515097
   17    0.0069354964
   18   -0.1105921086
   19    0.0056796675
 Ene=    -1.2450
 Spin= Beta
 Occup= 1.0
    1    0.0080151974
    2   -0.0175772185
    3   -0.0314937989
    4   -0.2192744754
    5    0.3112157569
    6    0.3897181446
    7   -0.1226870823
    8    0.1708143598
    9    0.2158112474
   10   -0.0084436513
   11    0.0079415756
   12   -0.0041593552
   13    0.0021674328
   14    0.0099596296
   15    0.0039964701
   16    0.2430511106
   17    0.0037248356
   18   -0.2379814988
   19   -0.0131066741
 Ene=    -0.9591
 Spin= Beta
 Occup= 1.0
    1   -0.0177983530
    2    0.0473245934
    3    0.0610138674
    4   -0.4890039295
    5   -0.4606584630
    6    0.0883845591
    7   -0.3326172686
    8   -0.3112366955
    9    0.0615386240
   10   -0.0013439471
   11   -0.0033614773
   12    0.0041234385
   13   -0.0073718312
   14    0.0000421604
   15    0.0002958899
   16   -0.0367255137
   17   -0.0095340855
   18   -0.0401449593
   19   -0.0114587485
 Ene=    -0.2964
 Spin= Beta
 Occup= 0.0
    1   -0.0000007967
    2    0.0000013101
    3    0.0000056605
    4   -0.2951798318
    5    0.2440803228
    6   -0.3609987629
    7   -0.3512381288
    8    0.2904342600
    9   -0.4295574967
   10   -0.0056459854
   11    0.0062050754
   12   -0.0005596919
   13   -0.0016371135
   14   -0.0042506736
   15   -0.0050801847
   16   -0.0000009706
   17   -0.0000008901
   18   -0.0000025938
   19   -0.0000043163
 Ene=    -0.1327
 Spin= Beta
 Occup= 0.0
    1   -0.1167691068
    2    0.1710220792
    3    1.2982953237
    4    0.0682033338
    5    0.0130257377
    6   -0.0469568705
    7    0.1139339391
    8    0.0236703381
    9   -0.0771490655
   10   -0.0354442266
   11   -0.0369882391
   12   -0.0461440761
   13    0.0113811357
   14    0.0009058333
   15   -0.0048974409
   16   -0.1774247817
   17   -0.8043259426
   18   -0.2139959957
   19   -1.0453948940
 Ene=    -0.0069
 Spin= Beta
 Occup= 0.0
    1   -0.0154671926
    2    0.0182377467
    3    0.2562130390
    4   -0.1316921076
    5    0.1903621001
    6    0.2363893587
    7   -0.3336978757
    8    0.4822158713
    9    0.5988932248
   10   -0.0099872295
   11   -0.0043417822
   12   -0.0070966443
   13   -0.0003851287
   14    0.0001844596
   15    0.0043546138
   16   -0.0589914148
   17   -1.4861792150
   18    0.0530079403
   19    1.1378637916
 Ene=     0.4766
 Spin= Beta
 Occup= 0.0
    1    0.0531428482
    2    0.0744838243
    3   -0.3498646790
    4   -0.0225146607
    5    0.0019157074
    6    0.0197041339
    7   -0.0216278057
    8   -0.1154769900
    9   -0.0603960143
   10    0.0236467110
   11    0.0597388838
   12    0.1303760583
   13   -0.0896482047
   14   -0.0935507698
   15    0.1287165958
   16    0.7167259790
   17   -0.3935571350
   18    0.8283661486
   19   -0.6668890742
 Ene=     0.7446
 Spin= Beta
 Occup= 0.0
    1    0.0044418688
    2    0.1361707637
    3   -0.2483942757
    4   -0.6689116335
    5   -0.6320616407
    6    0.1196006675
    7    0.7517581139
    8    0.7257805728
    9   -0.1239766234
   10    0.0537944317
   11    0.0502274362
   12    0.0499252536
   13    0.0033471009
   14   -0.0049949336
   15    0.0004799517
   16   -0.0171870347
   17    0.0045861123
   18    0.0092432449
   19   -0.0029278738
 Ene=     0.8582
 Spin= Beta
 Occup= 0.0
    1   -0.0000004412
    2   -0.0000117028
    3    0.0000254301
    4    0.5771264643
    5   -0.4772169263
    6    0.7058218218
    7   -0.5448112562
    8    0.4504964881
    9   -0.6663025928
   10   -0.0034213972
   11    0.0001671231
   12    0.0032425005
   13    0.0015120849
   14   -0.0008807954
   15   -0.0014141521
   16   -0.0000033625
   17    0.0000018560
   18    0.0000041701
   19   -0.0000114005
 Ene=     0.9092
 Spin= Beta
 Occup= 0.0
    1    0.0268115676
    2    0.5422292765
    3   -1.3002197905
    4    0.3713132178
    5   -0.4687995000
    6   -0.6205666184
    7   -0.3548206454
    8    0.3795821622
    9    0.5467586679
   10    0.1153787550
   11    0.2354701230
   12    0.1675914173
   13   -0.0022391376
   14    0.0347901614
   15    0.0655701988
   16    0.5968441226
   17   -0.5375868408
   18   -0.5730601843
   19    1.1483343059
 Ene=     0.9758
 Spin= Beta
 Occup= 0.0
    1    0.0611790378
    2    1.6012457962
    3   -3.6581452374
    4   -0.0493267708
    5    0.2486296441
    6    0.2084453320
    7   -0.0099808752
    8   -0.2997166903
    9   -0.1944952359
   10    0.5012493557
   11    0.4540695815
   12    0.4798413852
   13    0.0038941835
   14   -0.0265808726
   15   -0.0158623436
   16   -0.3427923026
   17    1.3132354220
   18    0.0850761654
   19    0.5902072980
 Ene=     1.2294
 Spin= Beta
 Occup= 0.0
    1    0.0025416646
    2    0.0074379734
    3   -0.1365700087
    4   -0.2099777096
    5    0.2666043871
    6    0.3519500100
    7    0.8315122959
    8   -1.1478624703
    9   -1.4560040742
   10   -0.2337316377
   11    0.2917364495
   12   -0.0760838510
   13    0.0561642630
   14    0.2542766358
   15    0.1854662655
   16    0.8036434212
   17    0.6345557648
   18   -0.7611971366
   19   -0.5330824087
 Ene=     1.5575
 Spin= Beta
 Occup= 0.0
    1   -0.0000000115
    2    0.0000003405
    3   -0.0000000659
    4    0.0025851766
    5   -0.0021380016
    6    0.0031602177
    7   -0.0009368446
    8    0.0007766480
    9   -0.0011351265
   10    0.3923431377
   11    0.4577601946
   12   -0.8501028759
   13   -0.5069112984
   14   -0.1242609242
   15   -0.0590103277
   16   -0.0000047003
   17   -0.0000020327
   18    0.0000047817
   19    0.0000017668
 Ene=     1.6852
 Spin= Beta
 Occup= 0.0
    1    0.0000001503
    2   -0.0000005284
    3    0.0000001695
    4   -0.0010084078
    5    0.0008333316
    6   -0.0012344458
    7   -0.0049593066
    8    0.0041016109
    9   -0.0060552870
   10    0.7020055340
   11   -0.5448291078
   12   -0.1571772300
   13    0.0453117416
   14    0.4214674759
   15    0.5266035311
   16   -0.0000024919
   17   -0.0000024366
   18    0.0000055378
   19    0.0000009855
 Ene=     1.6858
 Spin= Beta
 Occup= 0.0
    1   -0.0034572916
    2    0.0204041766
    3   -0.0144974016
    4   -0.0032899351
    5    0.0086057513
    6    0.0085084908
    7    0.0375602263
    8   -0.0313126518
    9   -0.0518838936
   10   -0.1507121413
   11   -0.2400225623
   12    0.4200628482
   13   -0.7707432485
   14    0.4281913688
   15   -0.2244112470
   16    0.0030278325
   17    0.0339163397
   18   -0.0696573812
   19    0.0007426015
 Ene=     1.7293
 Spin= Beta
 Occup= 0.0
    1   -0.0003439245
    2    0.0233644461
    3    0.0423080853
    4    0.0785213385
    5   -0.1000810705
    6   -0.1318719748
    7   -0.5761161098
    8    0.7959533578
    9    1.0092391259
   10   -0.4561834334
   11    0.6140251785
   12   -0.1216731220
   13    0.0916719130
   14    0.5650964071
   15    0.3445618038
   16   -0.7721551063
   17   -0.3459791344
   18    0.7724805668
   19    0.2841484846
 Ene=     2.6418
 Spin= Beta
 Occup= 0.0
    1    0.0898163659
    2    0.2614200502
    3   -1.4060534237
    4    0.0125651942
    5   -0.0216261918
    6   -0.0248963967
    7   -0.0186916815
    8   -0.2237583057
    9   -0.1360108388
   10    0.5628982012
   11    0.1943802252
   12   -0.1387059653
   13    0.5101817789
   14    0.6798867436
   15   -0.9818333219
   16    1.1149588253
   17    0.0150978130
   18    0.8462501236
   19   -0.1218584232
 Ene=     3.5978
 Spin= Beta
 Occup= 0.0
    1    0.4620528505
    2   -0.3287328718
    3   -3.5784224125
    4    0.0095310796
    5    0.0327970580
    6    0.0143828099
    7   -0.0378712813
    8   -0.0198554611
    9    0.0175398576
   10    1.5058522147
   11    1.5653931649
   12    1.6124897040
   13   -0.0754317202
   14   -0.1049730148
   15    0.1527925028
   16   -0.3976573475
   17    0.6511111936
   18   -0.3212482719
   19    0.6024464388
