[Molden Format]
[Title]
Written by TeraChem
[Atoms] Angs
O   1   8      1.0768409160   -1.8991839161   -1.3503985661
H   2   1      1.5681590840   -2.5978160839   -1.8686014339
[GTO]
    1 0
 s    5 1.00
         2288.640000             0.005451
          344.416000             0.040719
           78.253800             0.181369
           21.719500             0.465537
            6.559070             0.451211
 s    2 1.00
           10.465600            -0.150211
            0.964351             1.052868
 s    1 1.00
            0.285127             1.000000
 s    1 1.00
            0.079596             1.000000
 p    3 1.00
           17.059000             0.068749
            3.689990             0.351672
            0.992996             0.724532
 p    1 1.00
            0.244924             1.000000
 p    1 1.00
            0.061231             1.000000
 d    1 1.00
            1.000000             1.000000
 d    1 1.00
            0.183690             1.000000

    2 0
 s    3 1.00
           12.251800             0.037217
            1.868710             0.253808
            0.418208             0.797387
 s    1 1.00
            0.106100             1.000000
 s    1 1.00
            0.026525             1.000000
 p    1 1.00
            1.000000             1.000000
 p    1 1.00
            0.079575             1.000000

[MO]
 Ene=   -19.0123
 Spin= Alpha
 Occup= 1.0
    1   -0.9913170942
    2   -0.0347929675
    3   -0.0010527629
    4    0.0015614078
    5   -0.0001622200
    6    0.0009602174
    7    0.0004791048
    8   -0.0000201950
    9   -0.0002739471
   10   -0.0001076184
   11    0.0001261216
   12   -0.0000592998
   13   -0.0000825935
   14    0.0059549245
   15    0.0060740314
   16    0.0061423070
   17    0.0001497158
   18    0.0002584255
   19   -0.0001959117
   20   -0.0003850669
   21   -0.0003865590
   22   -0.0004256886
   23   -0.0000698522
   24   -0.0000866301
   25    0.0000846295
   26    0.0002520267
   27   -0.0005222643
   28   -0.0002014037
   29   -0.0002340570
   30    0.0003699721
   31    0.0002620961
   32    0.0000440032
   33   -0.0000805474
   34   -0.0000532757
 Ene=    -0.8457
 Spin= Alpha
 Occup= 1.0
    1    0.2368157102
    2   -0.5085951803
    3   -0.3960074353
    4   -0.1250027940
    5   -0.0434404261
    6    0.0975117136
    7    0.0610024404
    8   -0.0007586556
    9    0.0131067785
   10    0.0057637108
   11   -0.0055747520
   12    0.0051707105
   13    0.0046694325
   14   -0.0131454719
   15   -0.0040953194
   16   -0.0007089611
   17    0.0024346045
   18    0.0107991997
   19   -0.0049532968
   20    0.0175939809
   21    0.0280486414
   22    0.0218927136
   23   -0.0121015043
   24   -0.0065351805
   25    0.0122648910
   26   -0.2244056331
   27    0.0435168778
   28    0.0156002592
   29    0.0133527175
   30   -0.0220038120
   31   -0.0153100867
   32   -0.0089876599
   33    0.0139956701
   34    0.0098643436
 Ene=    -0.3307
 Spin= Alpha
 Occup= 1.0
    1   -0.0787019920
    2    0.1714373499
    3    0.2574603929
    4   -0.0219601001
    5   -0.4057872105
    6    0.2723998586
    7    0.3076914382
    8   -0.2027301795
    9    0.1173773110
   10    0.1452853551
   11   -0.0199286138
   12    0.0248567292
   13    0.0176138060
   14    0.0063175047
   15   -0.0065064008
   16   -0.0016579462
   17    0.0117823553
   18    0.0034123255
   19   -0.0106304321
   20   -0.0051612860
   21   -0.0014549218
   22   -0.0069764760
   23   -0.0030477330
   24   -0.0036786336
   25    0.0050542286
   26   -0.3640897133
   27    0.0063563706
   28    0.0101329525
   29    0.0049027896
   30   -0.0220032790
   31   -0.0113965588
   32   -0.0210825406
   33    0.0276593582
   34    0.0212044718
 Ene=    -0.2026
 Spin= Alpha
 Occup= 1.0
    1   -0.0244152204
    2    0.0477886171
    3    0.0869605318
    4    0.0299091746
    5    0.4652717243
    6    0.4919097800
    7    0.0109025532
    8    0.3040306133
    9    0.2967467641
   10   -0.0048659670
   11    0.0432936136
   12    0.0494099451
   13   -0.0016427669
   14    0.0098120546
   15   -0.0144776030
   16    0.0041219001
   17   -0.0078350474
   18   -0.0062815854
   19   -0.0056434523
   20    0.0174687679
   21   -0.0166128614
   22    0.0052927285
   23   -0.0126944162
   24   -0.0135458175
   25   -0.0033493922
   26   -0.0981981491
   27   -0.0388077304
   28   -0.0016920209
   29    0.0193225862
   30    0.0091152451
   31   -0.0044622329
   32   -0.0046528274
   33    0.0022148571
   34    0.0032504585
 Ene=    -0.1688
 Spin= Alpha
 Occup= 1.0
    1   -0.0009578743
    2    0.0018674685
    3    0.0027835819
    4    0.0017162765
    5   -0.2570211981
    6    0.2501115005
    7   -0.5738520626
    8   -0.1659440543
    9    0.1628085382
   10   -0.3703130209
   11   -0.0293016466
   12    0.0339437635
   13   -0.0625723532
   14   -0.0019487499
   15   -0.0095694159
   16    0.0114154376
   17    0.0069777239
   18    0.0001142415
   19    0.0098461319
   20   -0.0061619375
   21   -0.0134088032
   22    0.0189657304
   23    0.0111650086
   24   -0.0033507236
   25    0.0127410327
   26   -0.0043673056
   27   -0.0001426981
   28   -0.0002991680
   29   -0.0093098620
   30    0.0089380606
   31   -0.0210019552
   32   -0.0015723220
   33    0.0013663441
   34   -0.0024396910
 Ene=     0.0740
 Spin= Alpha
 Occup= 1.0
    1    0.0357025202
    2   -0.0771581554
    3    0.1417127804
    4   -1.9213353763
    5   -0.0566566866
    6    0.0874479300
    7    0.0628664242
    8   -0.0625761949
    9    0.0960502367
   10    0.0684584630
   11   -0.1653795114
   12    0.2111678380
   13    0.1514463755
   14    0.0055413293
   15    0.0057593542
   16    0.0065880040
   17   -0.0007871839
   18    0.0004754316
   19   -0.0002025647
   20    0.2255535535
   21    0.2188864433
   22    0.2222722450
   23    0.0058137545
   24    0.0004290442
   25   -0.0049477617
   26    0.0723687034
   27    0.6821630789
   28    1.5396789704
   29    0.0073812003
   30   -0.0093370973
   31   -0.0073411616
   32   -0.0506706595
   33    0.0868144357
   34    0.0695417516
 Ene=     0.1851
 Spin= Alpha
 Occup= 0.0
    1    0.0267872612
    2   -0.0806665188
    3   -0.2170546812
    4    3.4316424553
    5   -0.1442804565
    6    0.1952577740
    7    0.1464957328
    8   -0.0318003253
    9    0.0340307887
   10    0.0265772825
   11    0.5217322164
   12   -0.6582147696
   13   -0.5128748385
   14    0.0004791774
   15    0.0020119528
   16    0.0010654864
   17   -0.0063206935
   18   -0.0042977626
   19    0.0052661190
   20   -0.0662687828
   21   -0.0366926999
   22   -0.0661960807
   23   -0.0652463232
   24   -0.0507070132
   25    0.0658091973
   26    0.1384486085
   27   -1.6659261116
   28   -1.4361778160
   29    0.0264623383
   30   -0.0341750826
   31   -0.0267582550
   32    0.6181903608
   33   -0.8575488021
   34   -0.6477986304
 Ene=     0.2162
 Spin= Alpha
 Occup= 0.0
    1    0.0519927019
    2   -0.1742159125
    3   -1.3538147141
    4    1.7506730852
    5   -0.0182662474
    6    0.0445778085
    7    0.0413225872
    8   -0.0750323479
    9    0.1322608602
   10    0.1082732229
   11   -0.6935575778
   12    0.7841987029
   13    0.5612742625
   14   -0.0179128676
   15   -0.0117681068
   16   -0.0154466182
   17   -0.0088374320
   18   -0.0042234744
   19    0.0073208940
   20   -0.7043502353
   21   -0.7424683901
   22   -0.7096021226
   23    0.0621193633
   24    0.0404683347
   25   -0.0603367537
   26    0.1976431014
   27    2.1555156156
   28   -0.8596895853
   29    0.0082689217
   30   -0.0099655267
   31   -0.0080014378
   32   -0.0486574149
   33    0.1416890057
   34    0.1085895232
 Ene=     0.2381
 Spin= Alpha
 Occup= 0.0
    1   -0.0033479718
    2    0.0060516012
    3    0.0353500092
    4    0.4040770246
    5    0.1447479374
    6    0.1427402930
    7   -0.0443841278
    8    0.2253077126
    9    0.1859514943
   10   -0.0800887483
   11   -0.8198408649
   12   -1.0225148771
   13    0.1749672019
   14    0.0054442395
   15   -0.0076139770
   16    0.0033665587
   17   -0.0024256364
   18   -0.0034118974
   19   -0.0021179057
   20   -0.0314750985
   21    0.0711971620
   22   -0.0055285183
   23    0.0027702004
   24    0.0242361510
   25    0.0246982125
   26   -0.0238134562
   27   -0.4156877294
   28   -0.0824194624
   29   -0.0016408077
   30   -0.0035632477
   31   -0.0005623339
   32    0.2037956603
   33    0.0966130413
   34   -0.1031481211
 Ene=     0.2440
 Spin= Alpha
 Occup= 0.0
    1    0.0029536044
    2   -0.0094224811
    3   -0.0765761634
    4    0.0446624764
    5   -0.1051675817
    6    0.0605978156
    7   -0.1744023630
    8   -0.1614541851
    9    0.0962000670
   10   -0.2564208328
   11    0.6081599437
   12   -0.3030659495
   13    1.1468996462
   14   -0.0037853303
   15   -0.0047106736
   16    0.0058982380
   17    0.0043269842
   18   -0.0005363094
   19    0.0055953329
   20   -0.0110182340
   21   -0.0183091465
   22   -0.0911466810
   23   -0.0282155441
   24    0.0122542613
   25   -0.0359956289
   26    0.0099613039
   27    0.1624320496
   28   -0.0295463788
   29    0.0016779338
   30   -0.0007126917
   31    0.0016045561
   32   -0.1305471350
   33    0.0937489467
   34   -0.2046454179
 Ene=     0.2997
 Spin= Alpha
 Occup= 0.0
    1    0.0198316032
    2   -0.0845997850
    3   -1.3464463661
    4    3.6960460997
    5    0.0126924868
    6   -0.0034610868
    7   -0.0115308156
    8    0.0324693174
    9   -0.0015057438
   10   -0.0252602423
   11    1.2172973737
   12   -0.8401961123
   13   -1.0296131073
   14   -0.0148712201
   15   -0.0127991003
   16   -0.0124434886
   17    0.0133248325
   18    0.0128130049
   19   -0.0119013035
   20   -0.7637475905
   21   -0.7743185224
   22   -0.7805933297
   23   -0.0841511913
   24   -0.0871931187
   25    0.0799532826
   26   -0.1177804728
   27   -1.0885669209
   28   -0.4742488042
   29   -0.0066967980
   30   -0.0045645124
   31    0.0030202661
   32   -1.0849650794
   33    0.5136527916
   34    0.8598194260
 Ene=     0.3020
 Spin= Alpha
 Occup= 0.0
    1    0.0059646031
    2   -0.0225183114
    3   -0.3716383579
    4    0.8897496368
    5   -0.0430258419
    6   -0.0432090237
    7    0.0065029516
    8   -0.1051781407
    9   -0.0954897761
   10    0.0185503057
   11   -1.0011286325
   12   -1.3852014526
   13   -0.0329521301
   14    0.0093062931
   15   -0.0185024811
   16   -0.0010236317
   17    0.0005868916
   18   -0.0055959852
   19   -0.0081877642
   20   -0.2982912293
   21   -0.0931289350
   22   -0.2328836188
   23    0.0088335898
   24    0.0413803653
   25    0.0591094327
   26   -0.0335322673
   27   -0.2503105002
   28   -0.0882185777
   29    0.0198862226
   30    0.0186667435
   31   -0.0028781814
   32    1.3591351734
   33    1.6329842204
   34   -0.0586944813
 Ene=     0.3042
 Spin= Alpha
 Occup= 0.0
    1    0.0015102553
    2   -0.0048641667
    3   -0.0656485483
    4    0.1039529995
    5    0.0266553103
    6   -0.0201767706
    7    0.0564389882
    8    0.0641109323
    9   -0.0469485888
   10    0.1340820224
   11    0.7776588012
   12   -0.5778997070
   13    1.4026224053
   14   -0.0077215001
   15   -0.0072568666
   16    0.0135478931
   17    0.0089227622
   18   -0.0035330809
   19    0.0066938456
   20    0.0181771100
   21    0.0256705012
   22   -0.1449146588
   23   -0.0698812863
   24    0.0212785823
   25   -0.0611520568
   26   -0.0010413693
   27    0.0069626511
   28   -0.0078033503
   29   -0.0123694399
   30    0.0089466146
   31   -0.0238841931
   32   -0.9874563642
   33    0.7426526657
   34   -1.7858590177
 Ene=     0.4053
 Spin= Alpha
 Occup= 0.0
    1   -0.0268835757
    2    0.0220193608
    3    0.2292566835
    4    7.0908287792
    5    0.1735899927
    6   -0.2545657093
    7   -0.1847773633
    8    0.3488789322
    9   -0.5422770495
   10   -0.3828991258
   11    0.3737595727
   12   -0.5246203830
   13   -0.3779918244
   14   -0.0122126382
   15   -0.0103177200
   16   -0.0119970284
   17    0.0050879720
   18    0.0033065106
   19   -0.0026067997
   20   -0.1336511502
   21   -0.1510175882
   22   -0.1403965909
   23    0.0561942432
   24    0.0383120792
   25   -0.0503722461
   26   -0.3761330986
   27   -5.3168773949
   28   -1.3613784041
   29   -0.0058944405
   30    0.0038711782
   31    0.0042800706
   32    1.2816041223
   33   -1.7585002834
   34   -1.3453830851
 Ene=     0.6112
 Spin= Alpha
 Occup= 0.0
    1    0.0938720371
    2   -0.1782837456
    3    1.4398732410
    4    0.3142524819
    5    0.0098359337
    6   -0.0090040104
    7   -0.0065745506
    8    0.2143993035
    9   -0.3343995961
   10   -0.2385911690
   11    0.7162725983
   12   -0.8943941751
   13   -0.6940095720
   14    0.0331172390
   15    0.0469281401
   16    0.0370819601
   17   -0.0214579635
   18   -0.0131592618
   19    0.0209543732
   20    1.4991311939
   21    1.6457469046
   22    1.4174974162
   23   -0.3937354521
   24   -0.3460345216
   25    0.4326385868
   26    0.3436565426
   27   -5.2259897952
   28    0.1936026079
   29    0.0158604153
   30   -0.0172073085
   31   -0.0142824532
   32    0.3463456142
   33   -0.6230141043
   34   -0.4297215419
 Ene=     0.6183
 Spin= Alpha
 Occup= 0.0
    1   -0.0020098884
    2    0.0042309681
    3   -0.0553412242
    4    0.6524456136
    5   -0.0038673134
    6   -0.0038770156
    7    0.0007444626
    8    0.0145667095
    9   -0.0288609296
   10   -0.0183531227
   11    0.0528171520
   12   -0.1878422769
   13   -0.0877289363
   14   -0.0108510938
   15   -0.0017555245
   16    0.0101864445
   17   -0.0157413304
   18    0.0078995168
   19    0.0005080515
   20   -0.4525093436
   21   -0.2224638269
   22    0.5235194308
   23   -0.6674594340
   24    0.4278403039
   25   -0.1205558366
   26    0.0325786297
   27   -0.5389563918
   28   -0.0638137525
   29   -0.0003195741
   30   -0.0025383987
   31   -0.0007800728
   32    0.0751272734
   33    0.0301453958
   34   -0.0392856541
 Ene=     0.6187
 Spin= Alpha
 Occup= 0.0
    1    0.0012848570
    2   -0.0021956897
    3    0.0221075436
    4    0.0119445117
    5   -0.0021982175
    6    0.0017309221
    7   -0.0038868170
    8    0.0009590808
    9   -0.0036069041
   10   -0.0082274187
   11   -0.0233115845
   12    0.0008623571
   13   -0.0667032031
   14   -0.0119565605
   15    0.0071410170
   16    0.0067618740
   17    0.0008880681
   18   -0.0127005926
   19   -0.0097492932
   20   -0.5525447159
   21    0.3688902114
   22    0.2513011399
   23    0.0129318045
   24   -0.6027955340
   25   -0.5376385473
   26    0.0070536768
   27   -0.0880640412
   28    0.0022884768
   29   -0.0005050253
   30    0.0002416081
   31   -0.0018651872
   32    0.0484271374
   33   -0.0303635198
   34    0.0595336490
 Ene=     0.7061
 Spin= Alpha
 Occup= 0.0
    1    0.0811056296
    2   -0.0978361102
    3    1.5513840247
    4   -7.3125455020
    5    0.0174822398
    6   -0.0117487047
    7   -0.0136360935
    8   -0.0503900483
    9    0.0626547044
   10    0.0511638035
   11   -0.6037187615
   12    1.0871828393
   13    0.7475992069
   14    0.0499415357
   15    0.0334580846
   16    0.0488906950
   17    0.0254537245
   18    0.0200935451
   19   -0.0282925080
   20    1.8981144157
   21    1.3962004226
   22    1.8473782934
   23    0.4338198429
   24    0.3643381750
   25   -0.6098072149
   26   -0.2166246293
   27    2.7007956430
   28    0.8127139136
   29   -0.0066648393
   30    0.0121812053
   31    0.0086015551
   32   -0.0352618301
   33   -0.2246499102
   34   -0.0976781362
 Ene=     0.7124
 Spin= Alpha
 Occup= 0.0
    1    0.0119264262
    2   -0.0107879237
    3    0.2219237797
    4   -0.8034594714
    5    0.0153083419
    6    0.0198971043
    7    0.0007791018
    8   -0.0781256861
    9   -0.0712617126
   10    0.0097375279
   11   -0.9551469740
   12   -0.6777308553
   13    0.2015334356
   14   -0.0174367587
   15    0.0352241085
   16    0.0045834927
   17    0.0096329958
   18    0.0196850918
   19    0.0064129530
   20   -0.5447557843
   21    1.2226360467
   22    0.0910496325
   23    0.3490478704
   24    0.5948644222
   25    0.2767532277
   26    0.0003615620
   27    0.0817377112
   28    0.0999547787
   29   -0.0228130914
   30   -0.0206591497
   31    0.0030225397
   32    1.1728155221
   33    0.9177210858
   34   -0.2134002767
 Ene=     0.7212
 Spin= Alpha
 Occup= 0.0
    1    0.0017952763
    2   -0.0023755273
    3    0.0332809238
    4   -0.0986636198
    5    0.0100334096
    6   -0.0074845493
    7    0.0199268502
    8   -0.0419563514
    9    0.0322045918
   10   -0.0892054704
   11   -0.4978800986
   12    0.4075630989
   13   -0.9977802477
   14   -0.0119624982
   15   -0.0124650855
   16    0.0271167500
   17    0.0158556170
   18   -0.0075422565
   19    0.0131374658
   20   -0.3902643988
   21   -0.5053200935
   22    1.0058798515
   23    0.5841054061
   24   -0.2222794272
   25    0.5547976699
   26   -0.0000752550
   27   -0.0032556672
   28    0.0117328002
   29   -0.0129620659
   30    0.0103988302
   31   -0.0266784352
   32    0.6297043691
   33   -0.5138605993
   34    1.2674357065
 Ene=     1.0576
 Spin= Alpha
 Occup= 0.0
    1   -0.0070403800
    2    0.1685972373
    3   -0.1598284259
    4   -4.3886947850
    5    0.4454380079
    6   -0.2538214720
    7   -0.3174810766
    8   -0.5633616738
    9    0.2425522892
   10    0.3709167232
   11   -0.0471481405
   12    0.2172133862
   13    0.1078425745
   14    0.0235492776
   15   -0.0100812248
   16    0.0213242385
   17    0.0657003611
   18    0.0497294510
   19   -0.0668234013
   20    0.1782035786
   21    0.4683054201
   22    0.2144159579
   23   -0.4436452307
   24   -0.3275891888
   25    0.4729321481
   26   -1.1478258861
   27    3.8022852433
   28    0.6186584569
   29   -0.0986253781
   30    0.1226254704
   31    0.0968877919
   32   -0.7393698203
   33    1.1530476186
   34    0.8220031353
 Ene=     1.0898
 Spin= Alpha
 Occup= 0.0
    1    0.0001339730
    2    0.0584147398
    3    0.0114975106
    4   -1.1031350010
    5   -0.6165998063
    6   -0.6372483802
    7    0.0224241188
    8    0.9436921232
    9    0.8353546404
   10   -0.0905114481
   11   -0.2825483078
   12   -0.1880397480
   13    0.0518391270
   14    0.0124250882
   15   -0.0049327250
   16    0.0055525660
   17    0.0208906780
   18    0.0113493417
   19   -0.0204692791
   20    0.1425795200
   21    0.1733050267
   22    0.1305068007
   23   -0.1392975629
   24   -0.1145158174
   25    0.1304562243
   26   -0.3344518657
   27    0.7598219184
   28    0.1577433912
   29   -0.0112567602
   30    0.0451514490
   31    0.0240583205
   32   -0.3431458121
   33    0.1054218497
   34    0.2039936094
 Ene=     1.1147
 Spin= Alpha
 Occup= 0.0
    1    0.0001000411
    2   -0.0009750952
    3    0.0019255083
    4    0.0231894605
    5   -0.3624588523
    6    0.3247540995
    7   -0.7726939067
    8    0.5142405350
    9   -0.4583188804
   10    1.0978837018
   11   -0.1365858993
   12    0.1201105955
   13   -0.2966898487
   14    0.0033362743
   15    0.0006080085
   16   -0.0039272808
   17   -0.0024496986
   18    0.0028891341
   19    0.0006482932
   20    0.0122531780
   21    0.0144959489
   22   -0.0272943624
   23   -0.0146683940
   24    0.0094742890
   25   -0.0161147358
   26    0.0059368948
   27   -0.0239854300
   28   -0.0029919023
   29    0.0087280036
   30   -0.0079920587
   31    0.0166009801
   32   -0.0844162561
   33    0.0735456037
   34   -0.1956749972
 Ene=     1.5508
 Spin= Alpha
 Occup= 0.0
    1   -0.0299220926
    2    0.0458738709
    3    1.2691169805
    4    3.0497208504
    5   -0.3094460416
    6    0.4890142619
    7    0.3464997969
    8    1.3039569789
    9   -1.9174415400
   10   -1.4024907449
   11    0.4450005117
   12   -0.6135834902
   13   -0.4608885844
   14    0.0166738519
   15   -0.0246871319
   16    0.0084911537
   17    0.0695016939
   18    0.0478911250
   19   -0.0694021916
   20    0.5075589564
   21    0.9541815872
   22    0.5575529126
   23   -0.7203335787
   24   -0.5329830941
   25    0.7576264505
   26   -1.5761114401
   27   -4.8679699840
   28   -0.2746074013
   29    0.0308557792
   30   -0.0441243456
   31   -0.0329185276
   32    0.4844026042
   33   -0.6840170056
   34   -0.5091544521
 Ene=     2.0901
 Spin= Alpha
 Occup= 0.0
    1   -0.0262697339
    2   -2.1018172564
    3    2.2455481559
    4    4.4010718006
    5    0.0071443687
    6   -0.0267920889
    7   -0.0144261365
    8    0.1100168525
    9   -0.1504273587
   10   -0.1135742678
   11    0.1314145164
   12   -0.2040068204
   13   -0.1457102808
   14   -0.3365888449
   15   -0.3822974017
   16   -0.3473642247
   17    0.0693748024
   18    0.0465425519
   19   -0.0699392072
   20   -1.9858462590
   21   -1.8548683859
   22   -1.9617153128
   23   -0.1790510351
   24   -0.1257012724
   25    0.1920021862
   26   -0.4723304283
   27   -0.1240990551
   28   -0.5006650306
   29    0.0077359547
   30    0.0192478828
   31    0.0047953986
   32   -0.0466568340
   33    0.0813689726
   34    0.0554156223
 Ene=     2.1290
 Spin= Alpha
 Occup= 0.0
    1   -0.0033948356
    2   -0.0271976896
    3    0.0410632035
    4    0.1250946827
    5   -0.0112911129
    6   -0.0098551130
    7    0.0013157621
    8    0.2926914399
    9    0.2298202108
   10   -0.0453614492
   11    0.2454424051
   12    0.1830771112
   13   -0.0420703270
   14   -0.3105278495
   15    0.3253050542
   16   -0.0379811514
   17    0.0946517807
   18    0.2165728455
   19    0.0992875130
   20    0.4071117350
   21   -0.5494961670
   22    0.0215433153
   23   -0.1546237025
   24   -0.3139181771
   25   -0.1607570907
   26    0.0039266881
   27   -0.0417437550
   28   -0.0133948241
   29   -0.7045547367
   30   -0.5856865099
   31    0.0959685153
   32   -0.3543310269
   33   -0.2929868171
   34    0.0490602755
 Ene=     2.1408
 Spin= Alpha
 Occup= 0.0
    1   -0.0002509778
    2   -0.0002587497
    3    0.0010581297
    4    0.0049640701
    5   -0.0056387591
    6    0.0045645147
    7   -0.0133941517
    8    0.1526198750
    9   -0.1306649510
   10    0.3219177620
   11    0.1225584887
   12   -0.1054112804
   13    0.2564636979
   14   -0.1611365034
   15   -0.1731864447
   16    0.3332714582
   17    0.1980920487
   18   -0.1049395914
   19    0.1656507934
   20    0.2333377766
   21    0.2756546141
   22   -0.5142543545
   23   -0.3038093201
   24    0.1454000462
   25   -0.2723233466
   26    0.0005351253
   27   -0.0016017541
   28   -0.0004329090
   29   -0.3744151125
   30    0.3205595836
   31   -0.7899231103
   32   -0.1839835401
   33    0.1579091829
   34   -0.3870058140
 Ene=     2.4658
 Spin= Alpha
 Occup= 0.0
    1    0.0221127845
    2   -0.1797334610
    3    0.0444839366
    4   -1.5247313982
    5   -0.1904714248
    6    0.2671187291
    7    0.1992101972
    8   -0.0179165245
    9    0.0335157102
   10    0.0232833357
   11   -0.2238893646
   12    0.3177881621
   13    0.2363660007
   14   -0.1775250731
   15    0.0354224442
   16   -0.0229080177
   17   -0.4203610536
   18   -0.1889456844
   19    0.3183563450
   20    0.1865369423
   21    0.1088318698
   22    0.1282735875
   23    0.1354921498
   24    0.0562343611
   25   -0.1033564038
   26   -0.1396352883
   27    1.4191551789
   28    0.1204440675
   29   -0.4107567893
   30    0.5494705215
   31    0.4161234344
   32   -0.0566185125
   33    0.0803572185
   34    0.0588488038
 Ene=     2.5658
 Spin= Alpha
 Occup= 0.0
    1   -0.0005264536
    2    0.0017115145
    3    0.0022246625
    4    0.0180566240
    5    0.0044031424
    6   -0.0054131308
    7    0.0037116486
    8    0.0079309239
    9   -0.0071901477
   10    0.0128753230
   11   -0.0011772551
   12   -0.0006478289
   13   -0.0093554105
   14    0.5589388482
   15   -0.3933396229
   16   -0.1647475065
   17   -0.0703217609
   18    0.6788225779
   19    0.5649032997
   20   -0.1868583133
   21    0.1394124125
   22    0.0416359012
   23    0.0160970744
   24   -0.2284051025
   25   -0.1992868207
   26   -0.0006356542
   27   -0.0160887861
   28   -0.0015422922
   29   -0.0182222778
   30    0.0125610918
   31   -0.0515558866
   32    0.0036304864
   33   -0.0032719847
   34    0.0044226443
 Ene=     2.5678
 Spin= Alpha
 Occup= 0.0
    1   -0.0081531961
    2    0.0196799802
    3    0.0367642636
    4    0.2534353401
    5    0.0205388258
    6   -0.0405103816
    7   -0.0267460384
    8   -0.0000807833
    9   -0.0312341451
   10   -0.0124410805
   11    0.0381602802
   12   -0.0380297085
   13   -0.0340433816
   14   -0.4482241696
   15   -0.2014961962
   16    0.6487063315
   17   -0.5998007138
   18    0.4571608190
   19   -0.2978254330
   20    0.1062774181
   21    0.0507696477
   22   -0.2574577556
   23    0.2041771966
   24   -0.1509301734
   25    0.1108304287
   26   -0.0085489902
   27   -0.2083945621
   28   -0.0221249139
   29    0.1045973624
   30   -0.0429053654
   31   -0.0679167539
   32    0.0049457418
   33   -0.0200875529
   34   -0.0101250422
 Ene=     2.8289
 Spin= Alpha
 Occup= 0.0
    1   -0.0029115873
    2    0.0144152624
    3   -0.0144267255
    4   -0.0553162654
    5   -0.0035256457
    6    0.0144957821
    7    0.0075526572
    8   -0.1584194557
    9   -0.1089199395
   10    0.0328884896
   11    0.1857190496
   12    0.1658176017
   13   -0.0231451246
   14   -0.6393380312
   15    0.7724062182
   16   -0.1489217411
   17    0.2638027068
   18    0.4359828989
   19    0.2604902451
   20    0.1151781882
   21   -0.1421353064
   22    0.0342060015
   23   -0.0487969712
   24   -0.0728493785
   25   -0.0538475796
   26    0.0134882042
   27    0.0556637120
   28    0.0052701780
   29    0.5222043813
   30    0.4580693659
   31   -0.0686971678
   32   -0.2092917885
   33   -0.1603280071
   34    0.0367489906
 Ene=     2.8540
 Spin= Alpha
 Occup= 0.0
    1   -0.0003292813
    2    0.0011476494
    3   -0.0007207116
    4   -0.0018996144
    5    0.0018899322
    6   -0.0014015078
    7    0.0048665083
    8   -0.0786337425
    9    0.0657271113
   10   -0.1603711870
   11    0.1027575594
   12   -0.0851756338
   13    0.2129328684
   14   -0.3261253140
   15   -0.4379701290
   16    0.7622885920
   17    0.4560312910
   18   -0.1720387142
   19    0.4490689542
   20    0.0566461594
   21    0.0837283819
   22   -0.1412074392
   23   -0.0842019338
   24    0.0275717460
   25   -0.0876977317
   26    0.0014810162
   27    0.0026958645
   28    0.0002415855
   29    0.2797330299
   30   -0.2319943546
   31    0.5807450562
   32   -0.1104094397
   33    0.0918608572
   34   -0.2270527654
 Ene=     3.7027
 Spin= Alpha
 Occup= 0.0
    1    0.0855450845
    2    0.2902328586
    3   -1.8843760797
    4   -2.3260339713
    5   -0.2261105210
    6    0.3280392305
    7    0.2411139368
    8   -0.7314223930
    9    1.0408351515
   10    0.7719781829
   11   -0.1088390199
   12    0.1529351537
   13    0.1137986389
   14    0.2419297436
   15   -0.2243386917
   16    0.1965407659
   17    0.7276280985
   18    0.5469922575
   19   -0.7801472194
   20    0.2370124568
   21    0.1680181072
   22    0.2269320950
   23    0.1139907232
   24    0.0819872795
   25   -0.1170697571
   26    1.7728383647
   27    1.9982402693
   28    0.2806028440
   29   -0.6884509485
   30    0.9694778822
   31    0.7216905646
   32   -0.3081947404
   33    0.4407775363
   34    0.3263535919
 Ene=     5.3901
 Spin= Alpha
 Occup= 0.0
    1    0.5738190674
    2   -0.3811473126
    3   -2.9608107848
    4   -2.4044725149
    5    0.0412859845
    6   -0.0619184621
    7   -0.0448686845
    8    0.1110967775
    9   -0.1550804403
   10   -0.1160009926
   11   -0.0311405195
   12    0.0458575460
   13    0.0335784289
   14    1.7303565956
   15    1.7932023515
   16    1.7425664848
   17   -0.0907850734
   18   -0.0636519494
   19    0.0956136435
   20    1.3482413378
   21    1.3437808179
   22    1.3460606349
   23    0.0033150030
   24    0.0012820438
   25   -0.0035650661
   26   -0.1970791808
   27   -0.3424056682
   28    0.2753042586
   29    0.1419721399
   30   -0.1997594553
   31   -0.1487747154
   32    0.0549315959
   33   -0.0814130439
   34   -0.0593901560
 Ene=   -18.9750
 Spin= Beta
 Occup= 1.0
    1    0.9918956048
    2    0.0331645381
    3   -0.0000163779
    4   -0.0024365012
    5    0.0003634252
    6   -0.0008401231
    7   -0.0005328438
    8   -0.0000399915
    9    0.0002404268
   10    0.0001244303
   11   -0.0000780688
   12    0.0001261293
   13    0.0000881237
   14   -0.0054554030
   15   -0.0050716877
   16   -0.0051727509
   17   -0.0002040014
   18    0.0000378303
   19    0.0001849117
   20    0.0008735893
   21    0.0007662391
   22    0.0008256548
   23    0.0000868272
   24    0.0000367986
   25   -0.0000954931
   26   -0.0002052277
   27    0.0005208591
   28    0.0003077706
   29    0.0002744486
   30   -0.0003579245
   31   -0.0002752408
   32   -0.0000983181
   33    0.0000409057
   34    0.0000607300
 Ene=    -0.7510
 Spin= Beta
 Occup= 1.0
    1   -0.2263100348
    2    0.4663309261
    3    0.3983560025
    4    0.1304275043
    5    0.0697208035
    6   -0.0923261558
    7   -0.0731433373
    8    0.0140977052
    9   -0.0188698873
   10   -0.0150931202
   11    0.0052236381
   12   -0.0081114879
   13   -0.0057520112
   14    0.0012996302
   15    0.0115007857
   16    0.0072478354
   17   -0.0058211255
   18   -0.0003816754
   19    0.0055086579
   20   -0.0150324674
   21   -0.0187798031
   22   -0.0136693295
   23    0.0105400508
   24    0.0092584592
   25   -0.0114210485
   26    0.2534083303
   27   -0.0477394601
   28   -0.0159514841
   29   -0.0169713404
   30    0.0238670112
   31    0.0179065284
   32    0.0108598329
   33   -0.0154179527
   34   -0.0111255342
 Ene=    -0.2239
 Spin= Beta
 Occup= 1.0
    1    0.0903052033
    2   -0.1898844361
    3   -0.3025911188
    4   -0.0355307984
    5    0.0875408227
    6   -0.4502484959
    7   -0.2419178250