[Molden Format]
[Title]
Written by TeraChem
[Atoms] Angs
O   1   8      1.0830000000   -1.9080000000   -1.3570000000
H   2   1      1.5620000000   -2.5890000000   -1.8620000000
H   3   1      0.3840000000   -1.2890000000   -1.1480000000
[GTO]
    1 0
 s    6 1.00
         5484.671700             0.001831
          825.234950             0.013950
          188.046960             0.068445
           52.964500             0.232714
           16.897570             0.470193
            5.799635             0.358521
 s    3 1.00
           15.539616            -0.110778
            3.599934            -0.148026
            1.013762             1.130767
 s    1 1.00
            0.270006             1.000000
 p    3 1.00
           15.539616             0.070874
            3.599934             0.339753
            1.013762             0.727159
 p    1 1.00
            0.270006             1.000000
 d    1 1.00
            0.800000             1.000000

    2 0
 s    3 1.00
           18.731137             0.033495
            2.825394             0.234727
            0.640122             0.813757
 s    1 1.00
            0.161278             1.000000

    3 0
 s    3 1.00
           18.731137             0.033495
            2.825394             0.234727
            0.640122             0.813757
 s    1 1.00
            0.161278             1.000000

[MO]
 Ene=   -20.5203
 Spin= Alpha
 Occup= 2.0
    1    0.9945147196
    2    0.0212462179
    3    0.0050256112
    4   -0.0004186239
    5   -0.0000826725
    6   -0.0005136163
    7    0.0001240898
    8    0.0000268085
    9    0.0001555024
   10   -0.0043099917
   11   -0.0043254729
   12   -0.0042497265
   13    0.0001366705
   14    0.0000615628
   15   -0.0000900951
   16    0.0003567023
   17   -0.0004825865
   18    0.0003557715
   19   -0.0004865592
 Ene=    -1.2968
 Spin= Alpha
 Occup= 2.0
    1    0.2126700681
    2   -0.4762693421
    3   -0.4563807561
    4    0.0222884421
    5    0.0008962083
    6    0.0224007084
    7    0.0121584350
    8    0.0024378277
    9    0.0149658975
   10   -0.0195194776
   11   -0.0225242748
   12   -0.0075210771
   13    0.0244834131
   14    0.0119936910
   15   -0.0150772084
   16   -0.1162583903
   17   -0.0078856802
   18   -0.1223405597
   19   -0.0078683998
 Ene=    -0.7564
 Spin= Alpha
 Occup= 2.0
    1    0.0016130919
    2   -0.0030894979
    3   -0.0077013163
    4   -0.3083155416
    5    0.3378364402
    6    0.1834753272
    7   -0.1799257884
    8    0.1975666377
    9    0.1076542376
   10    0.0134064057
   11   -0.0034718799
   12   -0.0103270802
   13   -0.0066928055
   14    0.0052500888
   15   -0.0120035494
   16   -0.2436001135
   17   -0.0812584831
   18    0.2449308570
   19    0.0779589099
 Ene=    -0.4756
 Spin= Alpha
 Occup= 2.0
    1   -0.0293112205
    2    0.0631940470
    3    0.1483057612
    4    0.3785585323
    5    0.0834784799
    6    0.4770586243
    7    0.3114558296
    8    0.0690984628
    9    0.3930770960
   10   -0.0069842494
   11    0.0014898785
   12   -0.0101343901
   13    0.0008906711
   14   -0.0115489977
   15   -0.0043794842
   16   -0.0652392052
   17   -0.0493507157
   18   -0.0636585077
   19   -0.0469045869
 Ene=    -0.4690
 Spin= Alpha
 Occup= 2.0
    1    0.0000091141
    2   -0.0000190670
    3   -0.0000435031
    4   -0.3028766442
    5   -0.4496849898
    6    0.3190477699
    7   -0.2519571800
    8   -0.3740816075
    9    0.2654039982
   10    0.0074204052
   11    0.0017606698
   12   -0.0091763380
   13    0.0070455209
   14    0.0005153818
   15    0.0067453846
   16    0.0000188697
   17    0.0000090916
   18    0.0000201672
   19    0.0000133712
 Ene=     0.1901
 Spin= Alpha
 Occup= 0.0
    1   -0.1197492892
    2    0.0963091714
    3    1.4708236124
    4   -0.0547416835
    5   -0.0208952258
    6   -0.0813617080
    7   -0.1064836137
    8   -0.0407830416
    9   -0.1584525675
   10   -0.0614314539
   11   -0.0626866074
   12   -0.0608030390
   13   -0.0003691856
   14    0.0017899603
   15    0.0010384025
   16   -0.1324132908
   17   -1.0382454599
   18   -0.1285207541
   19   -0.9889036893
 Ene=     0.3053
 Spin= Alpha
 Occup= 0.0
    1   -0.0033664029
    2    0.0007773991
    3    0.0619051680
    4   -0.1854960574
    5    0.2033356486
    6    0.1105014709
    7   -0.5961120137
    8    0.6530563763
    9    0.3545630379
   10    0.0065710625
   11   -0.0042422767
   12   -0.0093260403
   13   -0.0053400835
   14    0.0028939701
   15   -0.0071831074
   16    0.0110934742
   17    1.3347324987
   18   -0.0104793254
   19   -1.4123454593
 Ene=     0.8822
 Spin= Alpha
 Occup= 0.0
    1    0.0545910351
    2    0.0262318924
    3   -0.3057242426
    4    0.0124847991
    5    0.0101170300
    6    0.0260923564
    7    0.1023576334
    8    0.0042008402
    9    0.1030034746
   10    0.0703479968
   11    0.0934674406
   12    0.0068353571
   13   -0.1327207518
   14   -0.0720073542
   15    0.0824588085
   16    0.8251271417
   17   -0.5323127160
   18    0.7931020507
   19   -0.4697311145
 Ene=     1.1884
 Spin= Alpha
 Occup= 0.0
    1    0.0001846014
    2    0.0047187462
    3   -0.0095963482
    4   -0.4575128507
    5   -0.6910329795
    6    0.5034173409
    7    0.4862899366
    8    0.7345110576
    9   -0.5348351903
   10   -0.0002374124
   11    0.0006313543
   12    0.0049055791
   13   -0.0022222501
   14   -0.0004763615
   15   -0.0020142259
   16   -0.0000020543
   17    0.0009309462
   18   -0.0001658798
   19    0.0009721800
 Ene=     1.1885
 Spin= Alpha
 Occup= 0.0
    1    0.0118352623
    2    0.3030870090
    3   -0.6162157657
    4    0.5919187000
    5    0.1392098037
    6    0.7277636823
    7   -0.6254448453
    8   -0.1417895710
    9   -0.7613350431
   10    0.1137037156
   11    0.1127197176
   12    0.1139100687
   13   -0.0040558666
   14    0.0010340742
   15    0.0046560243
   16   -0.0000908854
   17    0.0596069638
   18   -0.0108443102
   19    0.0626127211
 Ene=     1.3270
 Spin= Alpha
 Occup= 0.0
    1    0.0143234131
    2    0.3192356667
    3   -0.7482327971
    4    0.4944431495
    5   -0.5766166844
    6   -0.3433160143
    7   -0.2187112209
    8    0.2966532872
    9    0.2104560560
   10    0.2052273180
   11    0.0813954379
   12    0.0229598206
   13   -0.0604734055
   14    0.0330573825
   15   -0.0831611782
   16   -0.7154034381
   17    0.8945998692
   18    0.7118924624
   19   -0.5457281817
 Ene=     1.3526
 Spin= Alpha
 Occup= 0.0
    1    0.0652131817
    2    1.6410743455
    3   -3.7448300830
    4   -0.2395198743
    5    0.0824013904
    6   -0.1110980251
    7    0.2662558201
    8   -0.0142716329
    9    0.2324286518
   10    0.4981809921
   11    0.5284939511
   12    0.5288846069
   13   -0.0019983812
   14   -0.0172460675
   15    0.0259771999
   16    0.0493284981
   17    0.7585515167
   18   -0.2382862465
   19    1.0703603557
 Ene=     1.5753
 Spin= Alpha
 Occup= 0.0
    1    0.0007205948
    2    0.0073214028
    3   -0.0424480369
    4   -0.4080552734
    5    0.4531538590
    6    0.2513264298
    7    1.2805068040
    8   -1.4100275944
    9   -0.7717707265
   10    0.2348644409
   11   -0.0572719123
   12   -0.1774431082
   13   -0.1179999822
   14    0.0898330341
   15   -0.2068054722
   16   -0.6578997045
   17   -0.6183126221
   18    0.6661930966
   19    0.6474819121
 Ene=     2.0085
 Spin= Alpha
 Occup= 0.0
    1    0.0000000231
    2    0.0000001662
    3   -0.0000004421
    4    0.0004159166
    5    0.0006182824
    6   -0.0004386144
    7   -0.0000500899
    8   -0.0000738284
    9    0.0000527231
   10    0.5207862240
   11   -0.8489673082
   12    0.3281815299
   13    0.1165550509
   14   -0.4967250183
   15    0.0810385241
   16    0.0000000582
   17   -0.0000000462
   18   -0.0000001746
   19    0.0000001048
 Ene=     2.1232
 Spin= Alpha
 Occup= 0.0
    1    0.0007800469
    2    0.0067178097
    3   -0.0205699334
    4    0.0029685245
    5    0.0001859506
    6    0.0030767252
    7    0.0074376192
    8    0.0039299282
    9    0.0125901605
   10    0.1282904583
   11   -0.4334414434
   12    0.3114735777
   13   -0.2281674994
   14    0.7400135906
   15    0.4463442149
   16    0.0116495750
   17    0.0019523760
   18    0.0085662269
   19    0.0009431947
 Ene=     2.1236
 Spin= Alpha
 Occup= 0.0
    1   -0.0000000850
    2   -0.0000010528
    3    0.0000025795
    4   -0.0021307980
    5   -0.0031649717
    6    0.0022471540
    7   -0.0056393965
    8   -0.0083762946
    9    0.0059458294
   10   -0.5124740024
   11   -0.1699777905
   12    0.6824503794
   13   -0.5055196794
   14   -0.0617506366
   15   -0.4853734228
   16   -0.0000001747
   17   -0.0000005336
   18    0.0000002363
   19   -0.0000003780
 Ene=     2.3180
 Spin= Alpha
 Occup= 0.0
    1   -0.0001585244
    2   -0.0070867950
    3   -0.0049242892
    4   -0.1043643077
    5    0.1167358017
    6    0.0654583025
    7    0.8318318191
    8   -0.9170468525
    9   -0.5028676471
   10   -0.6556929593
   11    0.1572043828
   12    0.4893127957
   13    0.3207319932
   14   -0.2517770578
   15    0.5814803736
   16   -0.7956990368
   17   -0.2582378273
   18    0.7872675867
   19    0.2734848589
 Ene=     3.0191
 Spin= Alpha
 Occup= 0.0
    1    0.0770184989
    2    0.2766364441
    3   -1.2781680482
    4    0.0045960472
    5   -0.0053090613
    6   -0.0031197071
    7    0.1638292817
    8   -0.0096959261
    9    0.1417275272
   10    0.0371972134
   11   -0.0805202240
   12    0.5425329491
   13    1.0012852180
   14    0.4930513937
   15   -0.6044109840
   16    0.8930008305
   17   -0.0707113462
   18    0.9650283869
   19   -0.0393457383
 Ene=     4.0434
 Spin= Alpha
 Occup= 0.0
    1    0.4621727125
    2   -0.3621941983
    3   -3.5170194334
    4   -0.0274759579
    5   -0.0016102678
    6   -0.0283281551
    7    0.0419302421
    8    0.0115875024
    9    0.0560926629
   10    1.5629482296
   11    1.5754679835
   12    1.5055401118
   13   -0.1115073260
   14   -0.0548857865
   15    0.0663835107
   16   -0.2931237943
   17    0.5833131398
   18   -0.3104154060
   19    0.5961176151
