3
| terachem gradient in au, energy -75.5769406865 , grad_rms 0.028798 , grad_max 0.040624 on atom 2
 O       0.0069999056      -0.0215342490     -0.0021086542
 H      -0.0127026554       0.0382694678      0.0049376063
 H       0.0057027498      -0.0167352188     -0.0028289520
