[Molden Format]
[Title]
Written by TeraChem
[Atoms] Angs
O   1   8     -0.6100000000    1.0670000000    0.4600000000
H   2   1     -0.3160000000    0.1760000000    0.3530000000
H   3   1     -0.9200000000    1.9650000000    0.6300000000
[GTO]
    1 0
 s    6 1.00
         5484.671700             0.001831
          825.234950             0.013950
          188.046960             0.068445
           52.964500             0.232714
           16.897570             0.470193
            5.799635             0.358521
 s    3 1.00
           15.539616            -0.110778
            3.599934            -0.148026
            1.013762             1.130767
 s    1 1.00
            0.270006             1.000000
 p    3 1.00
           15.539616             0.070874
            3.599934             0.339753
            1.013762             0.727159
 p    1 1.00
            0.270006             1.000000
 d    1 1.00
            0.800000             1.000000

    2 0
 s    3 1.00
           18.731137             0.033495
            2.825394             0.234727
            0.640122             0.813757
 s    1 1.00
            0.161278             1.000000

    3 0
 s    3 1.00
           18.731137             0.033495
            2.825394             0.234727
            0.640122             0.813757
 s    1 1.00
            0.161278             1.000000

[MO]
 Ene=   -21.0986
 Spin= Alpha
 Occup= 1.0
    1    0.9940659458
    2    0.0225868494
    3    0.0062412729
    4    0.0000063825
    5   -0.0000196468
    6   -0.0000019303
    7   -0.0000052995
    8    0.0000109685
    9    0.0000089549
   10   -0.0049333271
   11   -0.0052057002
   12   -0.0046336392
   13    0.0001325351
   14   -0.0000316822
   15   -0.0001225342
   16    0.0005066559
   17   -0.0007395730
   18    0.0004958242
   19   -0.0007387364
 Ene=    -1.8728
 Spin= Alpha
 Occup= 1.0
    1    0.2216811993
    2   -0.5434057731
    3   -0.4313712353
    4   -0.0016436113
    5    0.0056789513
    6   -0.0003621512
    7    0.0003107068
    8    0.0003298319
    9   -0.0018648373
   10   -0.0005630776
   11   -0.0445655291
   12   -0.0217512828
   13    0.0181488996
   14    0.0077173360
   15   -0.0024481986
   16   -0.1035664739
   17    0.0179576247
   18   -0.0966777307
   19    0.0174099626
 Ene=    -1.2793
 Spin= Alpha
 Occup= 1.0
    1    0.0020189676
    2   -0.0047045051
    3   -0.0083984222
    4    0.1812559210
    5   -0.5375362008
    6   -0.0822013869
    7    0.0984147775
    8   -0.2917538853
    9   -0.0447795032
   10   -0.0003746436
   11    0.0003955306
   12   -0.0011180606
   13    0.0003506793
   14    0.0009803726
   15   -0.0023732532
   16    0.2229953381
   17   -0.0072796245
   18   -0.2194607269
   19    0.0052702169
 Ene=    -1.1050
 Spin= Alpha
 Occup= 1.0
    1   -0.0027417929
    2    0.0091847091
    3    0.0080634441
    4    0.1100354755
    5    0.1444352470
    6   -0.6988342311
    7    0.0638001166
    8    0.0834727615
    9   -0.4048178255
   10    0.0006446831
   11   -0.0010624255
   12    0.0000607621
   13    0.0005207007
   14    0.0000098868
   15    0.0005732368
   16   -0.0092255315
   17   -0.0016749008
   18   -0.0096404375
   19   -0.0017041437
 Ene=    -1.0082
 Spin= Alpha
 Occup= 1.0
    1    0.0000002053
    2   -0.0000005732
    3   -0.0000006558
    4   -0.6570350055
    5   -0.1994270837
    6   -0.1446716237
    7   -0.4145320070
    8   -0.1258211574
    9   -0.0912752240
   10   -0.0001868811
   11    0.0004137856
   12   -0.0002268976
   13    0.0007543872
   14   -0.0006183912
   15   -0.0000071537
   16    0.0000004698
   17    0.0000001019
   18    0.0000004733
   19    0.0000000997
 Ene=    -0.1495
 Spin= Alpha
 Occup= 0.0
    1   -0.1101811416
    2    0.1808090561
    3    1.2403968044
    4   -0.0072591905
    5    0.0114552026
    6    0.0171732940
    7   -0.0116401313
    8    0.0174143767
    9    0.0288525806
   10   -0.0362106768
   11   -0.0599196024
   12   -0.0196623316
   13    0.0111103073
   14   -0.0009726289
   15   -0.0083664726
   16   -0.2042253644
   17   -0.8743873236
   18   -0.2162698807
   19   -0.9443376375
 Ene=    -0.0161
 Spin= Alpha
 Occup= 0.0
    1   -0.0045168129
    2    0.0063007794
    3    0.0747169718
    4    0.1057890471
    5   -0.3136437334
    6   -0.0480955611
    7    0.2599756480
    8   -0.7708811985
    9   -0.1180503596
   10   -0.0024353020
   11   -0.0015308483
   12   -0.0021825626
   13   -0.0004024176
   14   -0.0001512646
   15    0.0001739154
   16   -0.0679396273
   17   -1.3559957313
   18    0.0652488548
   19    1.2530824349
 Ene=     0.4550
 Spin= Alpha
 Occup= 0.0
    1    0.0438337673
    2    0.1075016828
    3   -0.3178644394
    4    0.0025212541
    5   -0.0041089423
    6   -0.0057853983
    7   -0.0069113693
    8    0.0332479916
    9   -0.0144381408
   10    0.0155267743
   11    0.2435926083
   12   -0.0367384444
   13   -0.1017942610
   14   -0.0102742735
   15    0.0535751717
   16    0.7428076376
   17   -0.5098317103
   18    0.7727612900
   19   -0.5902885144
 Ene=     0.6612
 Spin= Alpha
 Occup= 0.0
    1    0.0012995960
    2    0.0410100976
    3   -0.0782662496
    4    0.1372139399
    5    0.1811597144
    6   -0.8728914363
    7   -0.1635683762
    8   -0.2170045485
    9    1.0419933202
   10    0.0125393645
   11    0.0128222521
   12    0.0154879198
   13   -0.0001344558
   14   -0.0007572952
   15   -0.0001257084
   16   -0.0020538571
   17    0.0056863944
   18   -0.0007028803
   19    0.0051552766
 Ene=     0.7204
 Spin= Alpha
 Occup= 0.0
    1   -0.0000000541
    2   -0.0000016974
    3    0.0000030611
    4   -0.8600265517
    5   -0.2610402760
    6   -0.1893679296
    7    0.9997506668
    8    0.3034502059
    9    0.2201335816
   10   -0.0007514306
   11    0.0000991229
   12    0.0006504040
   13    0.0000581850
   14    0.0016114953
   15    0.0005598718
   16    0.0000000880
   17    0.0000000093
   18   -0.0000000172
   19    0.0000000688
 Ene=     0.8998
 Spin= Alpha
 Occup= 0.0
    1    0.0131066417
    2    0.2982464494
    3   -0.6978021262
    4   -0.2933041793
    5    0.8656129256
    6    0.1388268116
    7    0.3113410060
    8   -0.9158300654
    9   -0.1515175751
   10    0.0854841021
   11    0.1074152867
   12    0.0786185201
   13   -0.0027553087
   14    0.0083432571
   15   -0.0210098960
   16    0.5509435407
   17   -0.7887400867
   18   -0.5666394840
   19    1.1352210229
 Ene=     0.9358
 Spin= Alpha
 Occup= 0.0
    1    0.0653279340
    2    1.6587069667
    3   -3.8140018347
    4    0.0498704214
    5   -0.1678790898
    6    0.0049220517
    7   -0.0531765913
    8    0.1925308579
    9   -0.0238832858
   10    0.4891691026
   11    0.4787324040
   12    0.4923808264
   13    0.0032662559
   14   -0.0014876861
   15    0.0026924364
   16   -0.2220449934
   17    1.1903859427
   18   -0.0142688292
   19    0.7979132838
 Ene=     1.3557
 Spin= Alpha
 Occup= 0.0
    1   -0.0004708043
    2    0.0021352217
    3    0.0347617865
    4   -0.1281066792
    5    0.3786352529
    6    0.0598624513
    7    0.6727704223
    8   -1.9931390137
    9   -0.3079234492
   10    0.0418808156
   11   -0.1521006815
   12    0.1202096382
   13   -0.0356416740
   14   -0.1538855802
   15    0.4089407616
   16   -0.9586956543
   17   -0.5656979791
   18    0.9473009911
   19    0.5356213873
 Ene=     1.4943
 Spin= Alpha
 Occup= 0.0
    1    0.0001276963
    2   -0.0029155209
    3   -0.0167205151
    4    0.0620996790
    5   -0.1842295186
    6   -0.0280719760
    7   -0.3893187079
    8    1.1535748320
    9    0.1779334259
   10    0.0731614975
   11   -0.2871743322
   12    0.2067023936
   13   -0.0712897405
   14   -0.2895049177
   15    0.7800708753
   16    0.6068958145
   17    0.3077610822
   18   -0.6027005959
   19   -0.2906529014
 Ene=     1.5127
 Spin= Alpha
 Occup= 0.0
    1    0.0000000121
    2   -0.0000003677
    3   -0.0000019295
    4   -0.0009897320
    5   -0.0003241304
    6   -0.0002228386
    7    0.0002488697
    8    0.0002264239
    9    0.0000860907
   10    0.5130165098
   11   -0.4615803096
   12   -0.0514370926
   13   -0.7880541140
   14   -0.0697212896
   15   -0.2342008221
   16    0.0000726231
   17    0.0000363292
   18   -0.0000721789
   19   -0.0000342977
 Ene=     1.5887
 Spin= Alpha
 Occup= 0.0
    1   -0.0000000961
    2    0.0000000307
    3    0.0000007729
    4    0.0010403431
    5    0.0003157832
    6    0.0002290958
    7   -0.0021111732
    8   -0.0006409866
    9   -0.0004647280
   10   -0.2470942484
   11   -0.0985148365
   12    0.3456086187
   13   -0.2306906833
   14    0.8748195022
   15    0.2338050537
   16   -0.0000004443
   17   -0.0000000438
   18   -0.0000002745
   19    0.0000000349
 Ene=     1.5891
 Spin= Alpha
 Occup= 0.0
    1   -0.0109472450
    2    0.0055893365
    3    0.0834693602
    4   -0.0000840617
    5    0.0009251344
    6   -0.0008933649
    7    0.0031049168
    8   -0.0117116502
    9    0.0020434046
   10    0.7093752465
   11    0.0453577239
   12   -0.8073163569
   13    0.2187548561
   14    0.3384198922
   15    0.2577047908
   16   -0.0451766709
   17   -0.0027281756
   18   -0.0326210983
   19    0.0030520669
 Ene=     2.6533
 Spin= Alpha
 Occup= 0.0
    1    0.1020314594
    2    0.2325739265
    3   -1.4383751467
    4   -0.0034622736
    5    0.0101565301
    6    0.0017236784
    7   -0.0146097055
    8    0.0674569129
    9   -0.0266278120
   10    0.7353120062
   11   -0.8890939093
   12    0.8559084294
   13    0.7115261985
   14    0.1174282292
   15   -0.3124720279
   16    1.0346559359
   17   -0.0469182459
   18    0.9571070986
   19   -0.0889591963
 Ene=     3.5633
 Spin= Alpha
 Occup= 0.0
    1    0.4597535974
    2   -0.3153092554
    3   -3.5779877799
    4    0.0015967889
    5   -0.0086605544
    6    0.0046847466
    7    0.0034132733
    8   -0.0041125495
    9   -0.0098300138
   10    1.4796883338
   11    1.7664551235
   12    1.4404150991
   13   -0.1264008127
   14   -0.0173478173
   15    0.0594489128
   16   -0.4052334556
   17    0.6463019718
   18   -0.3806602109
   19    0.6324255648
 Ene=   -21.0544
 Spin= Beta
 Occup= 1.0
    1    0.9949542360
    2    0.0198410375
    3    0.0042422259
    4    0.0000033197
    5   -0.0000288138
    6    0.0000246172
    7   -0.0000024530
    8    0.0000007883
    9    0.0000100605
   10   -0.0034881236
   11   -0.0035622558
   12   -0.0046108988
   13   -0.0000200940
   14    0.0002138290
   15    0.0002657524
   16    0.0001607154
   17   -0.0003838540
   18    0.0001674750
   19   -0.0003835343
 Ene=    -1.7136
 Spin= Beta
 Occup= 1.0
    1    0.2124743163
    2   -0.5029048682
    3   -0.4267198289
    4   -0.0011912855
    5    0.0087545693
    6   -0.0066560911
    7    0.0004577527
    8    0.0012286995
    9   -0.0037716910
   10   -0.0196106453
   11   -0.0673655380
   12    0.0165587501
   13    0.0224582355
   14   -0.0025496754
   15   -0.0173597012
   16   -0.1272078647
   17    0.0057549037
   18   -0.1187847269
   19    0.0054106160
 Ene=    -1.2471
 Spin= Beta
 Occup= 1.0
    1    0.0024263516
    2   -0.0053231666
    3   -0.0094795077
    4    0.1723091043
    5   -0.5105531416
    6   -0.0787646017
    7    0.0954390763
    8   -0.2827102136
    9   -0.0437317367
   10   -0.0006625181
   11   -0.0002277060
   12   -0.0006086633
   13    0.0006039891
   14    0.0009508825
   15   -0.0028928795
   16    0.2421078832
   17    0.0055888664
   18   -0.2406156424
   19   -0.0085628953
 Ene=    -0.9542
 Spin= Beta
 Occup= 1.0
    1    0.0000002343
    2   -0.0000006220
    3   -0.0000008091
    4   -0.6385661981
    5   -0.1938213377
    6   -0.1406049141
    7   -0.4357312614
    8   -0.1322556816
    9   -0.0959430027
   10    0.0001703710
   11    0.0005858409
   12   -0.0007562038
   13    0.0011443195
   14   -0.0019610210
   15   -0.0003564063
   16    0.0000004988
   17    0.0000001326
   18    0.0000005218
   19    0.0000001486
 Ene=    -0.2955
 Spin= Beta
 Occup= 0.0
    1   -0.0074283909
    2    0.0123704934
    3    0.0512709522
    4    0.0797483674
    5    0.1056953228
    6   -0.5078816517
    7    0.0950931974
    8    0.1259992213
    9   -0.6055597860
   10    0.0001497674
   11   -0.0009379181
   12   -0.0043985292
   13    0.0000741911
   14    0.0006984019
   15    0.0016372960
   16   -0.0148895722
   17   -0.0218142934
   18   -0.0153199018
   19   -0.0233381443
 Ene=    -0.1332
 Spin= Beta
 Occup= 0.0
    1   -0.1188578130
    2    0.1739407537
    3    1.3182323893
    4   -0.0090968567
    5    0.0104645758
    6    0.0268846227
    7   -0.0154395531
    8    0.0165223016
    9    0.0473371107
   10   -0.0301349689
   11   -0.0484801129
   12   -0.0423789443
   13    0.0074136712
   14    0.0038552206
   15   -0.0001969787
   16   -0.1963543761
   17   -0.8935177367
   18   -0.2073826116
   19   -0.9678910273
 Ene=    -0.0070
 Spin= Beta
 Occup= 0.0
    1   -0.0047938487
    2    0.0057085475
    3    0.0788837094
    4    0.1052874110
    5   -0.3121735206
    6   -0.0478439922
    7    0.2687289030
    8   -0.7968641536
    9   -0.1219867592
   10   -0.0025445494
   11   -0.0008495845
   12   -0.0031913107
   13   -0.0003911594
   14    0.0004480350
   15   -0.0009488575
   16   -0.0551594028
   17   -1.3743395508
   18    0.0529166662
   19    1.2673078395
 Ene=     0.4667
 Spin= Beta
 Occup= 0.0
    1    0.0527369645
    2    0.0862325851
    3   -0.3522806020
    4    0.0028602801
    5   -0.0056561651
    6   -0.0051922370
    7   -0.0063530853
    8    0.0333616468
    9   -0.0171299637
   10   -0.0036493659
   11    0.2290869404
   12   -0.0010636348
   13   -0.1012541988
   14   -0.0207927055
   15    0.0407216279
   16    0.7523023396
   17   -0.5007744367
   18    0.7850319898
   19   -0.5832139043
 Ene=     0.7451
 Spin= Beta
 Occup= 0.0
    1   -0.0000000588
    2   -0.0000017524
    3    0.0000032095
    4   -0.8738270547
    5   -0.2652291072
    6   -0.1924066453
    7    0.9906958551
    8    0.3007018755
    9    0.2181398282
   10   -0.0005334608
   11    0.0002882989
   12    0.0002431729
   13    0.0004563084
   14    0.0005714424
   15    0.0003150213
   16    0.0000000738
   17    0.0000000070
   18   -0.0000000104
   19    0.0000000043
 Ene=     0.8592
 Spin= Beta
 Occup= 0.0
    1    0.0022981215
    2    0.0742563060
    3   -0.1540870774
    4    0.1559551301
    5    0.2078852366
    6   -0.9948465496
    7   -0.1465784022
    8   -0.1972221932
    9    0.9375628724
   10    0.0253842874
   11    0.0260470230
   12    0.0247519914
   13   -0.0005871742
   14   -0.0002809214
   15    0.0012808774
   16   -0.0050566692
   17    0.0248915959
   18   -0.0047248768
   19    0.0270166236
 Ene=     0.9209
 Spin= Beta
 Occup= 0.0
    1    0.0105628732
    2    0.2287608480
    3   -0.5393534828
    4   -0.2986093055
    5    0.8793105304
    6    0.1440385926
    7    0.2913185578
    8   -0.8555173122
    9   -0.1437247874
   10    0.0669150053
   11    0.0881689032
   12    0.0612605584
   13   -0.0039892549
   14    0.0061758245
   15   -0.0155013947
   16    0.5794097907
   17   -0.8062549365
   18   -0.5839569624
   19    1.0656150953
 Ene=     0.9679
 Spin= Beta
 Occup= 0.0
    1    0.0651435209
    2    1.6768660737
    3   -3.8394623084
    4    0.0348355390
    5   -0.1365910696
    6    0.0300736566
    7   -0.0346202403
    8    0.1481912914
    9   -0.0470367974
   10    0.5131839941
   11    0.5058528309
   12    0.4953469642
   13    0.0014994865
   14    0.0028460214
   15    0.0063494991
   16   -0.2087677972
   17    1.1401875383
   18   -0.0430748388
   19    0.8384109337
 Ene=     1.3775
 Spin= Beta
 Occup= 0.0
    1   -0.0006837622
    2    0.0032780528
    3    0.0378792856
    4   -0.1430839858
    5    0.4227915583
    6    0.0670140928
    7    0.7441187270
    8   -2.2043686408
    9   -0.3407800532
   10    0.0291016927
   11   -0.0886217335
   12    0.0709424170
   13   -0.0194692037
   14   -0.0892618675
   15    0.2404765916
   16   -1.0526251092
   17   -0.6320722031
   18    1.0385136864
   19    0.5998097686
 Ene=     1.5242
 Spin= Beta
 Occup= 0.0
    1    0.0000000062
    2   -0.0000000827
    3   -0.0000004241
    4   -0.0011525047
    5   -0.0003548901
    6   -0.0002548749
    7    0.0003975845
    8    0.0001524438
    9    0.0000941517
   10    0.5130784668
   11   -0.4615208512
   12   -0.0515577950
   13   -0.7879806658
   14   -0.0699383667
   15   -0.2343525426
   16    0.0000151700
   17    0.0000077298
   18   -0.0000150430
   19   -0.0000073105
 Ene=     1.5776
 Spin= Beta
 Occup= 0.0
    1    0.0001288831
    2   -0.0024035544
    3   -0.0100251291
    4    0.0377068854
    5   -0.1123417332
    6   -0.0163871994
    7   -0.2456364969
    8    0.7280455083
    9    0.1119762034
   10    0.0767352998
   11   -0.3128848156
   12    0.2313002977
   13   -0.0782231026
   14   -0.3168053873
   15    0.8464342633
   16    0.3896274244
   17    0.1938691043
   18   -0.3871253275
   19   -0.1832313562
 Ene=     1.6879
 Spin= Beta
 Occup= 0.0
    1   -0.0000000064
    2    0.0000000154
    3    0.0000000279
    4   -0.0009529428
    5   -0.0002892420
    6   -0.0002098027
    7   -0.0015914060
    8   -0.0004830951
    9   -0.0003503022
   10   -0.2469562273
   11   -0.0986454773
   12    0.3456017336
   13   -0.2309152024
   14    0.8747956082
   15    0.2337361246
   16   -0.0000000939
   17    0.0000000099
   18   -0.0000000476
   19    0.0000000299
 Ene=     1.6894
 Spin= Beta
 Occup= 0.0
    1   -0.0030649065
    2    0.0255816605
    3   -0.0246810668
    4    0.0001831036
    5    0.0000344880
    6   -0.0008792813
    7    0.0015463607
    8   -0.0038720995
    9   -0.0016859631
   10   -0.7323714682
   11   -0.0116064845
   12    0.7785201720
   13   -0.2427329651
   14   -0.3410384274
   15   -0.2499521328
   16   -0.0299762552
   17    0.0160619463
   18   -0.0244320746
   19    0.0175553731
 Ene=     2.6863
 Spin= Beta
 Occup= 0.0
    1    0.0979216809
    2    0.2467912050
    3   -1.4308285842
    4   -0.0033296458
    5    0.0104663441
    6    0.0006942551
    7   -0.0143461208
    8    0.0665728587
    9   -0.0266063130
   10    0.7061421112
   11   -0.8943491061
   12    0.8855396210
   13    0.7038650645
   14    0.1044965104
   15   -0.3228748858
   16    1.0257613341
   17   -0.0445265425
   18    0.9494976763
   19   -0.0862428166
 Ene=     3.6066
 Spin= Beta
 Occup= 0.0
    1    0.4601274472
    2   -0.3364172747
    3   -3.5485321458
    4    0.0013647924
    5   -0.0090458402
    6    0.0062695186
    7    0.0034733275
    8   -0.0038390732
    9   -0.0104797846
   10    1.4755595226
   11    1.7592341104
   12    1.4376147717
   13   -0.1249954132
   14   -0.0173276459
   15    0.0585823108
   16   -0.4010544021
   17    0.6394208080
   18   -0.3768268057
   19    0.6256833154
